ITEM: TIMESTEP
0
ITEM: NUMBER OF ATOMS
4000
ITEM: BOX BOUNDS pp pp pp
0.0000000000000000e+00 1.6795961913825074e+01
0.0000000000000000e+00 1.6795961913825074e+01
0.0000000000000000e+00 1.6795961913825074e+01
ITEM: ATOMS id type x y z vx vy vz
1 1 0 0 0 -0.184158 -0.971004 -2.93462
2 1 0.839798 0.839798 0 -1.79959 2.1272 2.29857
3 1 0.839798 0 0.839798 -1.80768 -0.958513 1.60588
4 1 0 0.839798 0.839798 2.48911 2.78259 -0.986295
5 1 1.6796 0 0 -1.24266 -0.87021 -0.335376
6 1 2.51939 0.839798 0 -1.06402 -0.812477 -2.59702
7 1 2.51939 0 0.839798 0.675507 -2.3282 -2.96997
8 1 1.6796 0.839798 0.839798 -2.20969 2.17927 1.65226
9 1 3.35919 0 0 -1.68743 2.43135 -2.3585
10 1 4.19899 0.839798 0 1.55282 2.91925 0.334316
11 1 4.19899 0 0.839798 0.713207 -3.00431 2.55884
12 1 3.35919 0.839798 0.839798 0.579982 -0.943192 -0.648298
13 1 5.03879 0 0 -2.12103 0.255783 -1.80694
14 1 5.87859 0.839798 0 -0.805523 0.400568 -2.87481
15 1 5.87859 0 0.839798 2.65677 -0.573429 -2.09626
16 1 5.03879 0.839798 0.839798 2.65829 0.856227 1.61241
17 1 6.71838 0 0 2.69617 -2.78895 -2.49571
18 1 7.55818 0.839798 0 -0.872894 -2.26948 -0.79204
19 1 7.55818 0 0.839798 2.54261 1.89764 -1.85023
20 1 6.71838 0.839798 0.839798 2.35906 -2.27351 -2.12448
21 1 8.39798 0 0 -2.33749 -1.1423 -0.351369
24 1 8.39798 0.839798 0.839798 1.39382 0.738487 -1.88209
22 1 9.23778 0.839798 0 1.20978 0.517954 0.704047
23 1 9.23778 0 0.839798 2.78375 1.23398 1.62086
25 1 10.0776 0 0 0.249759 0.541106 -2.83363
28 1 10.0776 0.839798 0.839798 2.71573 -0.292724 -2.19998
26 1 10.9174 0.839798 0 -2.25596 -2.15137 2.96522
27 1 10.9174 0 0.839798 0.89573 1.93835 -0.18605
29 1 11.7572 0 0 -2.21678 -2.11933 -2.2844
32 1 11.7572 0.839798 0.839798 1.29802 -2.56621 1.89328
30 1 12.597 0.839798 0 -1.98144 2.54761 0.391262
31 1 12.597 0 0.839798 -2.30738 -2.58055 2.46396
33 1 13.4368 0 0 2.97561 0.0312253 -0.405073
36 1 13.4368 0.839798 0.839798 -0.766987 1.69712 -1.15283
34 1 14.2766 0.839798 0 2.26683 0.106339 -0.518932
35 1 14.2766 0 0.839798 -1.57366 -0.314248 -1.50352
37 1 15.1164 0 0 1.04985 0.791319 -1.93465
40 1 15.1164 0.839798 0.839798 -2.37683 2.18228 -2.28711
38 1 15.9562 0.839798 0 -2.52304 -2.67117 1.70337
39 1 15.9562 0 0.839798 0.398747 -2.37004 0.532183
41 1 0 1.6796 0 1.1117 1.11215 1.76469
42 1 0.839798 2.51939 0 2.17662 0.276131 1.88957
43 1 0.839798 1.6796 0.839798 0.750177 2.18667 -0.904279
44 1 0 2.51939 0.839798 1.65293 0.123699 1.30264
45 1 1.6796 1.6796 0 1.27719 -2.19759 -0.691609
46 1 2.51939 2.51939 0 -2.39487 0.991788 2.57236
47 1 2.51939 1.6796 0.839798 0.427724 1.37776 1.72759
48 1 1.6796 2.51939 0.839798 0.366469 -1.18246 1.27059
49 1 3.35919 1.6796 0 0.45791 1.28003 2.26215
50 1 4.19899 2.51939 0 2.30222 2.83955 1.84936
51 1 4.19899 1.6796 0.839798 -1.85834 -0.681663 -2.87669
52 1 3.35919 2.51939 0.839798 1.52483 -2.3947 2.83981
53 1 5.03879 1.6796 0 1.43232 1.4581 -1.10024
54 1 5.87859 2.51939 0 -0.205726 -1.02201 -2.40856
55 1 5.87859 1.6796 0.839798 3.02725 -2.03347 -2.9785
56 1 5.03879 2.51939 0.839798 1.38478 -0.166641 2.57477
57 1 6.71838 1.6796 0 0.355856 1.66104 2.58091
58 1 7.55818 2.51939 0 1.84077 -2.22291 2.6344
59 1 7.55818 1.6796 0.839798 -1.89904 -1.94569 -1.58045
60 1 6.71838 2.51939 0.839798 0.432926 -1.808 -1.17587
61 1 8.39798 1.6796 0 2.20595 -2.16573 -2.78442
64 1 8.39798 2.51939 0.839798 -2.81391 1.71593 0.949826
62 1 9.23778 2.51939 0 -0.887612 -1.95565 0.0361153
63 1 9.23778 1.6796 0.839798 2.60173 -1.27036 -2.23275
65 1 10.0776 1.6796 0 -1.24879 -1.1563 -0.0481
68 1 10.0776 2.51939 0.839798 1.55342 0.955402 1.17378
66 1 10.9174 2.51939 0 -0.506793 1.20079 -0.583126
67 1 10.9174 1.6796 0.839798 -1.64732 -0.0407638 -2.15366
69 1 11.7572 1.6796 0 -0.811804 -2.47125 -2.97843
72 1 11.7572 2.51939 0.839798 1.70927 -1.33632 0.800283
70 1 12.597 2.51939 0 2.37444 2.48993 -2.44552
71 1 12.597 1.6796 0.839798 -0.715371 -0.676159 -0.990608
73 1 13.4368 1.6796 0 -0.952354 -2.70811 3.0181
76 1 13.4368 2.51939 0.839798 2.21825 -0.831195 2.96481
74 1 14.2766 2.51939 0 -2.39669 0.609301 1.59818
75 1 14.2766 1.6796 0.839798 0.868188 -1.85525 2.13819
77 1 15.1164 1.6796 0 -0.424213 -0.276266 2.56666
80 1 15.1164 2.51939 0.839798 1.85964 0.840197 -2.00845
78 1 15.9562 2.51939 0 -1.64097 -1.9594 -2.58514
79 1 15.9562 1.6796 0.839798 2.45214 -2.4324 -2.48391
81 1 0 3.35919 0 2.50867 -0.693349 0.0609546
82 1 0.839798 4.19899 0 1.3419 -1.99422 -1.73974
83 1 0.839798 3.35919 0.839798 -1.88906 2.58627 -2.32851
84 1 0 4.19899 0.839798 0.577491 -0.524583 -2.70577
85 1 1.6796 3.35919 0 -2.93069 2.38813 2.05686
86 1 2.51939 4.19899 0 -2.25869 0.202388 0.879976
87 1 2.51939 3.35919 0.839798 -2.25048 -0.760187 0.313863
88 1 1.6796 4.19899 0.839798 -0.204376 -2.48468 0.772962
89 1 3.35919 3.35919 0 -2.79528 0.706511 -1.66976
90 1 4.19899 4.19899 0 -0.00838563 -0.749908 -2.12095
91 1 4.19899 3.35919 0.839798 -0.270721 0.0104255 0.382001
92 1 3.35919 4.19899 0.839798 1.06377 -0.964142 -2.38455
93 1 5.03879 3.35919 0 1.97378 -1.87903 1.11722
94 1 5.87859 4.19899 0 2.00099 2.37426 -1.42382
95 1 5.87859 3.35919 0.839798 0.659696 -2.27693 0.913116
96 1 5.03879 4.19899 0.839798 -0.533918 -1.62646 -0.613654
97 1 6.71838 3.35919 0 -0.793987 0.981029 2.97513
98 1 7.55818 4.19899 0 -0.0234539 -0.286816 0.440888
99 1 7.55818 3.35919 0.839798 -1.94068 -1.13257 0.00437219
100 1 6.71838 4.19899 0.839798 2.0433 0.688896 -1.71013
101 1 8.39798 3.35919 0 0.11805 -2.12373 2.24561
104 1 8.39798 4.19899 0.839798 1.11803 -1.21819 -1.27076
102 1 9.23778 4.19899 0 -1.02637 -2.20934 1.15831
103 1 9.23778 3.35919 0.839798 -0.230633 -2.80455 1.11819
105 1 10.0776 3.35919 0 -2.4332 -2.87116 -0.889079
108 1 10.0776 4.19899 0.839798 1.43887 2.70322 -0.0474344
106 1 10.9174 4.19899 0 2.34067 2.7665 0.441057
107 1 10.9174 3.35919 0.839798 -1.02841 -0.360485 0.665251
109 1 11.7572 3.35919 0 -2.27857 -1.70106 2.05208
112 1 11.7572 4.19899 0.839798 0.338825 -0.656062 -1.50336
110 1 12.597 4.19899 0 1.52272 -1.52715 1.14866
111 1 12.597 3.35919 0.839798 -2.02365 -0.0882466 -2.80216
113 1 13.4368 3.35919 0 1.15197 1.47071 -0.67644
116 1 13.4368 4.19899 0.839798 1.74352 0.430698 2.13444
114 1 14.2766 4.19899 0 -0.705112 2.60055 2.18505
115 1 14.2766 3.35919 0.839798 -2.33784 -0.976815 2.09188
117 1 15.1164 3.35919 0 2.74442 -1.35532 1.56079
120 1 15.1164 4.19899 0.839798 2.85169 1.40915 -2.23473
118 1 15.9562 4.19899 0 -2.9204 0.0627597 -2.00316
119 1 15.9562 3.35919 0.839798 -2.60671 -1.39488 1.12459
121 1 0 5.03879 0 -1.19655 0.79636 -1.78622
122 1 0.839798 5.87859 0 -2.64354 1.88254 -1.82002
123 1 0.839798 5.03879 0.839798 -1.36473 1.41911 1.90954
124 1 0 5.87859 0.839798 3.00789 -1.06946 -2.5543
125 1 1.6796 5.03879 0 1.25141 -0.661897 -2.92635
126 1 2.51939 5.87859 0 0.645386 -1.13565 2.66052
127 1 2.51939 5.03879 0.839798 1.44544 -1.54926 -2.01069
128 1 1.6796 5.87859 0.839798 -1.59247 -2.34755 -1.95855
129 1 3.35919 5.03879 0 -0.240297 -2.12098 0.190744
130 1 4.19899 5.87859 0 2.24817 0.56866 1.16261
131 1 4.19899 5.03879 0.839798 2.9777 -1.12212 0.404539
132 1 3.35919 5.87859 0.839798 -1.59305 -0.0809255 -0.575007
133 1 5.03879 5.03879 0 -2.35711 1.35939 1.02256
134 1 5.87859 5.87859 0 3.03774 -0.793644 -0.193823
135 1 5.87859 5.03879 0.839798 -2.64927 2.17698 -0.745588
136 1 5.03879 5.87859 0.839798 -0.899448 -1.53315 -3.00582
137 1 6.71838 5.03879 0 1.49268 0.928809 1.24761
138 1 7.55818 5.87859 0 1.29928 0.589153 1.27065
139 1 7.55818 5.03879 0.839798 -1.27609 -0.881666 0.434471
140 1 6.71838 5.87859 0.839798 0.215287 1.10595 0.235897
141 1 8.39798 5.03879 0 1.75449 -2.56159 0.995599
144 1 8.39798 5.87859 0.839798 0.136077 -1.19256 0.498578
142 1 9.23778 5.87859 0 -0.226649 -2.30051 -2.84894
143 1 9.23778 5.03879 0.839798 1.64947 2.43052 1.79906
145 1 10.0776 5.03879 0 -2.54273 -1.30577 0.786603
148 1 10.0776 5.87859 0.839798 0.286068 0.656178 -1.88301
146 1 10.9174 5.87859 0 2.69025 0.438903 1.0905
147 1 10.9174 5.03879 0.839798 -1.2722 -1.93189 0.667034
149 1 11.7572 5.03879 0 1.49307 1.56899 2.03892
152 1 11.7572 5.87859 0.839798 0.413088 -2.97906 -2.10674
150 1 12.597 5.87859 0 0.17148 1.8142 -2.70497
151 1 12.597 5.03879 0.839798 -2.42413 -1.52082 -1.16958
153 1 13.4368 5.03879 0 2.87022 -1.28564 0.829699
156 1 13.4368 5.87859 0.839798 -2.14869 0.523613 -0.836541
154 1 14.2766 5.87859 0 -0.727532 0.328109 -0.440172
155 1 14.2766 5.03879 0.839798 -2.58429 0.909993 -0.871924
157 1 15.1164 5.03879 0 2.2693 -0.618868 1.40228
160 1 15.1164 5.87859 0.839798 1.57632 -0.749387 0.601689
158 1 15.9562 5.87859 0 -2.66497 -1.9094 -1.7846
159 1 15.9562 5.03879 0.839798 -1.53891 -2.31715 1.42494
161 1 0 6.71838 0 -0.959053 -0.520122 -0.217387
162 1 0.839798 7.55818 0 1.99953 2.01295 -2.96142
163 1 0.839798 6.71838 0.839798 2.1708 -0.869714 1.9541
164 1 0 7.55818 0.839798 2.41903 2.89743 1.98991
165 1 1.6796 6.71838 0 -2.77779 -1.31852 -2.04323
166 1 2.51939 7.55818 0 -1.72179 -1.17204 1.19581
167 1 2.51939 6.71838 0.839798 -2.94135 -1.62867 -1.54371
168 1 1.6796 7.55818 0.839798 2.0966 2.42173 -0.9459
169 1 3.35919 6.71838 0 1.1886 0.82455 0.805036
170 1 4.19899 7.55818 0 0.613794 -0.512482 1.3299
171 1 4.19899 6.71838 0.839798 2.69132 0.243715 0.760816
172 1 3.35919 7.55818 0.839798 2.25221 2.01528 0.0279253
173 1 5.03879 6.71838 0 -1.01117 -0.484783 1.71678
174 1 5.87859 7.55818 0 0.278831 -0.145072 2.6287
175 1 5.87859 6.71838 0.839798 1.83514 -0.180372 1.35118
176 1 5.03879 7.55818 0.839798 2.64972 1.86694 1.74155
177 1 6.71838 6.71838 0 0.285373 1.07096 -1.72953
178 1 7.55818 7.55818 0 -2.84235 1.00739 -0.943206
179 1 7.55818 6.71838 0.839798 2.97775 -0.355935 -1.3993
180 1 6.71838 7.55818 0.839798 -1.4017 2.2107 -1.79236
181 1 8.39798 6.71838 0 2.79469 -2.23014 2.00959
184 1 8.39798 7.55818 0.839798 3.03977 -2.94787 2.70004
182 1 9.23778 7.55818 0 -1.48515 1.1201 2.4707
183 1 9.23778 6.71838 0.839798 -2.93989 -1.30622 -0.755551
185 1 10.0776 6.71838 0 -0.383481 1.68894 0.285364
188 1 10.0776 7.55818 0.839798 -0.942647 -2.67798 2.09976
186 1 10.9174 7.55818 0 0.549003 -2.10763 1.11303
187 1 10.9174 6.71838 0.839798 -1.07316 2.64768 2.88225
189 1 11.7572 6.71838 0 -2.34335 2.93789 -0.611707
192 1 11.7572 7.55818 0.839798 -0.336431 1.10424 1.84623
190 1 12.597 7.55818 0 -1.79862 0.388003 -2.62873
191 1 12.597 6.71838 0.839798 2.26621 1.76681 -1.82951
193 1 13.4368 6.71838 0 2.55546 0.327718 -0.965896
196 1 13.4368 7.55818 0.839798 2.44284 -1.7607 2.39886
194 1 14.2766 7.55818 0 -1.93364 2.38746 2.94854
195 1 14.2766 6.71838 0.839798 0.745044 0.494465 -1.41406
197 1 15.1164 6.71838 0 1.12633 -0.631558 -0.446009
200 1 15.1164 7.55818 0.839798 -2.11437 -2.60308 -1.72003
198 1 15.9562 7.55818 0 -0.790996 2.92423 -0.527721
199 1 15.9562 6.71838 0.839798 -0.954868 -2.68683 -1.71893
201 1 0 8.39798 0 2.16783 -2.55757 2.04745
203 1 0.839798 8.39798 0.839798 -2.93736 -1.08823 2.24621
205 1 1.6796 8.39798 0 1.74731 -2.38139 -2.99253
207 1 2.51939 8.39798 0.839798 2.01954 0.067764 -2.46806
209 1 3.35919 8.39798 0 2.60844 2.66681 -1.82513
211 1 4.19899 8.39798 0.839798 -2.82227 0.186247 1.42833
213 1 5.03879 8.39798 0 1.82706 3.00304 1.04777
215 1 5.87859 8.39798 0.839798 2.16028 -2.50625 0.77883
217 1 6.71838 8.39798 0 1.43133 2.92772 -2.38578
219 1 7.55818 8.39798 0.839798 -0.928377 1.56757 2.2023
221 1 8.39798 8.39798 0 2.66399 -0.0307421 -2.86363
223 1 9.23778 8.39798 0.839798 -1.14316 -1.83732 1.4594
225 1 10.0776 8.39798 0 -2.77027 -1.65057 -1.20584
227 1 10.9174 8.39798 0.839798 -2.42441 -0.231918 -1.1371
229 1 11.7572 8.39798 0 -0.0676468 -0.00944725 -1.37158
231 1 12.597 8.39798 0.839798 -1.74054 -2.11817 -1.00238
233 1 13.4368 8.39798 0 -2.58808 -2.30838 -2.15846
235 1 14.2766 8.39798 0.839798 -2.60579 1.97461 -0.966943
237 1 15.1164 8.39798 0 0.0469122 -1.65292 1.68545
239 1 15.9562 8.39798 0.839798 -0.0407928 -1.73971 -1.21843
202 1 0.839798 9.23778 0 1.31657 1.07086 2.63249
204 1 0 9.23778 0.839798 -1.5287 0.176541 1.4059
241 1 0 10.0776 0 -1.46066 2.05774 0.818938
243 1 0.839798 10.0776 0.839798 -1.00213 0.428145 1.51109
206 1 2.51939 9.23778 0 0.481169 -0.471054 2.91219
208 1 1.6796 9.23778 0.839798 0.342023 -1.27803 1.83225
245 1 1.6796 10.0776 0 0.14421 2.59645 -0.281881
247 1 2.51939 10.0776 0.839798 0.733733 -2.34396 -2.04118
210 1 4.19899 9.23778 0 -1.68486 -2.65777 -2.57971
212 1 3.35919 9.23778 0.839798 2.38036 -0.705488 1.42827
249 1 3.35919 10.0776 0 -1.90375 -2.60681 2.05034
251 1 4.19899 10.0776 0.839798 1.47862 0.270348 1.35687
214 1 5.87859 9.23778 0 0.992978 -0.680982 2.5182
216 1 5.03879 9.23778 0.839798 1.97308 -1.52528 2.38654
253 1 5.03879 10.0776 0 -2.1483 1.04064 2.03321
255 1 5.87859 10.0776 0.839798 2.57849 0.70165 1.20135
218 1 7.55818 9.23778 0 2.93329 1.5688 -1.24917
220 1 6.71838 9.23778 0.839798 0.845614 -0.674402 -1.66308
257 1 6.71838 10.0776 0 -2.31906 0.393266 1.26569
259 1 7.55818 10.0776 0.839798 -2.47077 -0.11832 -0.806644
224 1 8.39798 9.23778 0.839798 -0.778464 2.11418 0.945762
261 1 8.39798 10.0776 0 -1.0276 1.12734 -2.65842
222 1 9.23778 9.23778 0 1.53765 1.7184 0.0421266
228 1 10.0776 9.23778 0.839798 0.544768 -0.783461 1.79953
263 1 9.23778 10.0776 0.839798 1.71818 -2.72332 1.08524
265 1 10.0776 10.0776 0 1.00127 -0.314052 1.79587
226 1 10.9174 9.23778 0 0.592454 -2.7702 -1.45719
232 1 11.7572 9.23778 0.839798 2.26497 -0.964611 1.8096
267 1 10.9174 10.0776 0.839798 -2.28408 2.36068 -0.153015
269 1 11.7572 10.0776 0 -0.778942 0.123212 -0.849213
230 1 12.597 9.23778 0 0.416152 0.184103 1.646
236 1 13.4368 9.23778 0.839798 -2.26499 -2.93778 -2.89943
271 1 12.597 10.0776 0.839798 -1.51468 0.20819 1.73161
273 1 13.4368 10.0776 0 -0.839611 1.35866 0.853933
234 1 14.2766 9.23778 0 2.51321 -2.9732 -0.184829
240 1 15.1164 9.23778 0.839798 2.32711 -1.55021 0.285586
275 1 14.2766 10.0776 0.839798 -2.34624 2.82647 -0.542477
277 1 15.1164 10.0776 0 0.0607044 0.600286 1.11302
238 1 15.9562 9.23778 0 1.29693 -2.77354 2.75016
279 1 15.9562 10.0776 0.839798 1.3144 0.867002 1.48892
242 1 0.839798 10.9174 0 1.65284 -1.47936 0.989828
244 1 0 10.9174 0.839798 -0.0431178 1.47071 -0.630438
281 1 0 11.7572 0 0.203943 -2.29442 2.88202
283 1 0.839798 11.7572 0.839798 -0.11103 1.78619 -2.21667
246 1 2.51939 10.9174 0 -1.45234 2.92114 1.77786
248 1 1.6796 10.9174 0.839798 -1.59696 0.666061 1.10513
285 1 1.6796 11.7572 0 -1.47371 0.145535 -0.193299
287 1 2.51939 11.7572 0.839798 -2.6219 -2.98985 -2.18201
250 1 4.19899 10.9174 0 1.75255 1.07636 -1.59377
252 1 3.35919 10.9174 0.839798 -0.373785 1.53625 1.4413
289 1 3.35919 11.7572 0 1.08388 -1.24599 2.71474
291 1 4.19899 11.7572 0.839798 0.729458 -1.70963 -2.97283
254 1 5.87859 10.9174 0 1.21531 2.80812 -0.793258
256 1 5.03879 10.9174 0.839798 -2.22231 1.5925 -1.53653
293 1 5.03879 11.7572 0 -1.0565 -1.28056 1.65818
295 1 5.87859 11.7572 0.839798 1.59725 0.540746 -2.83437
258 1 7.55818 10.9174 0 -2.79335 -2.95607 -2.28923
260 1 6.71838 10.9174 0.839798 -2.58656 -1.07715 1.16302
297 1 6.71838 11.7572 0 -2.76599 -2.24803 -2.69371
299 1 7.55818 11.7572 0.839798 -1.97849 -2.32924 -2.35217
264 1 8.39798 10.9174 0.839798 0.37213 -2.69609 -0.386664
301 1 8.39798 11.7572 0 2.60004 0.558202 0.585147
262 1 9.23778 10.9174 0 -1.0185 -2.97722 -1.25143
268 1 10.0776 10.9174 0.839798 -2.81917 -1.98814 -2.33293
303 1 9.23778 11.7572 0.839798 -0.799429 0.129765 0.561468
305 1 10.0776 11.7572 0 1.23224 -2.67032 -2.10631
266 1 10.9174 10.9174 0 1.01356 0.893347 -2.75526
272 1 11.7572 10.9174 0.839798 1.32488 1.80207 -1.11838
307 1 10.9174 11.7572 0.839798 1.8443 2.73937 -2.5727
309 1 11.7572 11.7572 0 0.136911 0.742462 -1.52064
270 1 12.597 10.9174 0 0.0822483 0.235767 0.0697393
276 1 13.4368 10.9174 0.839798 0.021722 -2.16292 2.1513
311 1 12.597 11.7572 0.839798 -2.3035 2.21946 0.519624
313 1 13.4368 11.7572 0 0.00020135 -1.40934 -0.282183
274 1 14.2766 10.9174 0 -0.94254 -0.866848 1.79523
280 1 15.1164 10.9174 0.839798 0.891902 -1.98792 1.45541
315 1 14.2766 11.7572 0.839798 0.0321822 -1.54347 -1.33961
317 1 15.1164 11.7572 0 0.199544 2.30068 0.331026
278 1 15.9562 10.9174 0 1.20803 1.3282 2.35957
319 1 15.9562 11.7572 0.839798 -0.877247 -2.92565 1.56577
282 1 0.839798 12.597 0 -1.70244 -2.19556 -2.88961
284 1 0 12.597 0.839798 -2.111 -0.328135 0.687888
321 1 0 13.4368 0 -0.438362 -2.48332 -0.466842
323 1 0.839798 13.4368 0.839798 -0.977432 -1.34013 -2.89508
286 1 2.51939 12.597 0 0.18449 3.01269 0.153058
288 1 1.6796 12.597 0.839798 -0.800305 -2.51301 1.85163
325 1 1.6796 13.4368 0 -2.27942 2.14409 2.26288
327 1 2.51939 13.4368 0.839798 0.167179 2.02733 -2.85224
290 1 4.19899 12.597 0 -0.44223 -1.05 -1.60132
292 1 3.35919 12.597 0.839798 2.18347 0.54414 -0.160589
329 1 3.35919 13.4368 0 -2.91107 -0.111715 1.46809
331 1 4.19899 13.4368 0.839798 2.43078 0.97881 1.93104
294 1 5.87859 12.597 0 2.09242 -1.41096 2.72214
296 1 5.03879 12.597 0.839798 -1.96438 -0.824878 0.402574
333 1 5.03879 13.4368 0 2.03693 2.35417 -0.741058
335 1 5.87859 13.4368 0.839798 0.593728 0.529736 -0.614564
298 1 7.55818 12.597 0 -1.73594 2.72603 2.75248
300 1 6.71838 12.597 0.839798 2.75862 1.71446 0.375099
337 1 6.71838 13.4368 0 2.32617 0.787339 -2.38503
339 1 7.55818 13.4368 0.839798 -1.12398 0.363431 1.21761
304 1 8.39798 12.597 0.839798 1.4266 1.92955 2.85857
341 1 8.39798 13.4368 0 2.43894 -0.779171 1.41478
302 1 9.23778 12.597 0 2.1525 -0.400451 -0.509243
308 1 10.0776 12.597 0.839798 2.67936 -1.34442 -2.51704
343 1 9.23778 13.4368 0.839798 -2.45309 1.09827 -1.854
345 1 10.0776 13.4368 0 1.61486 0.50953 -1.92958
306 1 10.9174 12.597 0 1.32679 -2.20536 1.66542
312 1 11.7572 12.597 0.839798 -2.32295 1.60689 -1.41587
347 1 10.9174 13.4368 0.839798 -1.09981 1.80819 -1.05932
349 1 11.7572 13.4368 0 -1.34808 -2.74519 2.08589
310 1 12.597 12.597 0 -1.95358 -0.491476 -2.0361
316 1 13.4368 12.597 0.839798 2.09325 0.569498 -2.87439
351 1 12.597 13.4368 0.839798 0.132868 -0.760608 -0.724969
353 1 13.4368 13.4368 0 1.12665 -1.17569 0.214866
314 1 14.2766 12.597 0 -2.73706 0.746587 1.34994
320 1 15.1164 12.597 0.839798 2.39505 -1.54164 -0.786163
355 1 14.2766 13.4368 0.839798 -0.247714 0.0713291 -2.95818
357 1 15.1164 13.4368 0 2.30391 1.1063 0.119916
318 1 15.9562 12.597 0 -1.83817 0.0871044 2.4203
359 1 15.9562 13.4368 0.839798 0.18592 2.88137 -2.07735
322 1 0.839798 14.2766 0 -1.0141 -1.44271 0.673906
324 1 0 14.2766 0.839798 -1.11746 1.20035 -1.94165
361 1 0 15.1164 0 1.52226 2.86301 -2.59473
363 1 0.839798 15.1164 0.839798 -2.20895 2.53923 -1.46285
326 1 2.51939 14.2766 0 2.58475 -2.81546 -0.997779
328 1 1.6796 14.2766 0.839798 0.36361 -0.920424 1.44245
365 1 1.6796 15.1164 0 0.898191 1.01807 -2.64394
367 1 2.51939 15.1164 0.839798 2.49602 -2.0186 -0.833823
330 1 4.19899 14.2766 0 1.48576 -0.569564 2.45568
332 1 3.35919 14.2766 0.839798 1.67104 2.43548 0.561351
369 1 3.35919 15.1164 0 0.330861 -1.61043 2.96906
371 1 4.19899 15.1164 0.839798 -2.4309 -0.489298 -1.66152
334 1 5.87859 14.2766 0 2.99747 -1.07188 -0.877624
336 1 5.03879 14.2766 0.839798 1.42623 1.74758 1.24716
373 1 5.03879 15.1164 0 1.93798 0.608072 -0.934863
375 1 5.87859 15.1164 0.839798 0.855749 0.526048 -2.19352
338 1 7.55818 14.2766 0 1.19681 0.00915077 -2.91964
340 1 6.71838 14.2766 0.839798 -0.676845 0.457755 -2.2286
377 1 6.71838 15.1164 0 -1.20371 1.37709 2.61123
379 1 7.55818 15.1164 0.839798 0.327126 2.07281 0.335233
344 1 8.39798 14.2766 0.839798 -1.98255 1.90073 1.81106
381 1 8.39798 15.1164 0 -1.52729 -0.337261 -1.67449
342 1 9.23778 14.2766 0 -2.91198 2.69582 2.5256
348 1 10.0776 14.2766 0.839798 0.705817 -0.346593 -1.44796
383 1 9.23778 15.1164 0.839798 -2.7093 2.10645 -2.13967
385 1 10.0776 15.1164 0 -2.67397 -2.10663 -0.255738
346 1 10.9174 14.2766 0 2.36367 2.71786 -1.52818
352 1 11.7572 14.2766 0.839798 -0.271876 -1.27688 2.94425
387 1 10.9174 15.1164 0.839798 1.17338 -1.18197 -2.72172
389 1 11.7572 15.1164 0 0.72818 0.97561 2.5183
350 1 12.597 14.2766 0 1.88723 -0.724564 0.980308
356 1 13.4368 14.2766 0.839798 -1.81531 -2.36567 1.4897
391 1 12.597 15.1164 0.839798 0.951743 0.973201 -1.72608
393 1 13.4368 15.1164 0 -1.40483 -1.96498 0.415587
354 1 14.2766 14.2766 0 -0.0727718 -1.57329 -1.12567
360 1 15.1164 14.2766 0.839798 2.5572 -0.626487 0.202298
395 1 14.2766 15.1164 0.839798 0.266019 1.98618 0.223026
397 1 15.1164 15.1164 0 2.21137 -1.65548 0.94575
358 1 15.9562 14.2766 0 -0.301892 1.67554 -1.3164
399 1 15.9562 15.1164 0.839798 -2.35469 -0.345893 -1.75812
362 1 0.839798 15.9562 0 -2.95159 1.51016 -2.07968
364 1 0 15.9562 0.839798 -2.14696 -0.671711 1.28176
366 1 2.51939 15.9562 0 2.43735 2.69514 -2.83269
368 1 1.6796 15.9562 0.839798 1.55347 1.87903 -0.504191
370 1 4.19899 15.9562 0 2.57418 0.819468 -0.0343685
372 1 3.35919 15.9562 0.839798 -1.05085 -2.90189 2.15702
374 1 5.87859 15.9562 0 -0.965877 -0.447257 -1.86754
376 1 5.03879 15.9562 0.839798 2.99297 1.79516 -2.44815
378 1 7.55818 15.9562 0 -1.93099 -1.4104 0.0697783
380 1 6.71838 15.9562 0.839798 -1.77835 2.66588 0.772629
384 1 8.39798 15.9562 0.839798 0.296693 -1.99087 0.065784
382 1 9.23778 15.9562 0 -1.68392 1.13307 2.96906
388 1 10.0776 15.9562 0.839798 -1.62548 -1.38499 -1.6761
386 1 10.9174 15.9562 0 0.420499 0.765764 -2.54553
392 1 11.7572 15.9562 0.839798 0.597695 0.751193 0.242778
390 1 12.597 15.9562 0 -0.867214 2.59158 2.31285
396 1 13.4368 15.9562 0.839798 0.126208 2.07883 -1.18659
394 1 14.2766 15.9562 0 -2.39017 1.42158 1.27095
400 1 15.1164 15.9562 0.839798 0.613359 -1.78208 -0.443497
398 1 15.9562 15.9562 0 -2.73809 1.42538 -1.34059
401 1 0 0 1.6796 0.016049 -0.855361 1.554
402 1 0.839798 0.839798 1.6796 2.43237 -2.47744 1.63236
403 1 0.839798 0 2.51939 -2.70787 2.01857 0.965377
404 1 0 0.839798 2.51939 2.37323 0.365897 0.383898
405 1 1.6796 0 1.6796 -1.63943 -0.306831 2.33577
406 1 2.51939 0.839798 1.6796 -0.824505 1.53401 0.02154
407 1 2.51939 0 2.51939 -0.875933 1.03414 1.64066
408 1 1.6796 0.839798 2.51939 -0.774745 -1.82578 2.06822
409 1 3.35919 0 1.6796 -0.64773 0.485901 -0.363963
410 1 4.19899 0.839798 1.6796 -2.7511 0.374063 -1.31631
411 1 4.19899 0 2.51939 -0.286221 -0.735799 -0.577303
412 1 3.35919 0.839798 2.51939 -2.2805 2.22207 2.09615
413 1 5.03879 0 1.6796 2.91527 0.745944 2.63072
414 1 5.87859 0.839798 1.6796 0.468814 -2.73242 -0.82422
415 1 5.87859 0 2.51939 -0.992428 0.345382 -0.0852602
416 1 5.03879 0.839798 2.51939 0.0980512 0.0385499 1.88227
417 1 6.71838 0 1.6796 -1.45853 1.57007 1.94302
418 1 7.55818 0.839798 1.6796 1.14416 -2.91033 -0.731908
419 1 7.55818 0 2.51939 -2.65486 -1.15416 -0.450531
420 1 6.71838 0.839798 2.51939 0.694998 -0.961819 0.406228
421 1 8.39798 0 1.6796 -1.33769 2.80224 3.01692
424 1 8.39798 0.839798 2.51939 0.398268 1.65386 2.68924
422 1 9.23778 0.839798 1.6796 -0.493957 -0.544156 0.585787
423 1 9.23778 0 2.51939 -0.308391 1.18239 -1.71366
425 1 10.0776 0 1.6796 2.2769 0.165307 -0.133316
428 1 10.0776 0.839798 2.51939 2.39357 -2.25239 2.53435
426 1 10.9174 0.839798 1.6796 1.6432 -0.32135 -0.0481464
427 1 10.9174 0 2.51939 -2.63829 -0.605112 -2.98987
429 1 11.7572 0 1.6796 -1.03416 -0.32783 -0.221986
432 1 11.7572 0.839798 2.51939 -2.23793 -1.28185 -1.95492
430 1 12.597 0.839798 1.6796 0.0369139 -0.549746 -2.7453
431 1 12.597 0 2.51939 1.85507 2.48742 -2.40991
433 1 13.4368 0 1.6796 -1.91747 2.37542 -0.0032346
436 1 13.4368 0.839798 2.51939 2.60717 -0.480136 1.29675
434 1 14.2766 0.839798 1.6796 2.97817 0.758684 -0.718505
435 1 14.2766 0 2.51939 -0.311061 -1.41326 0.317201
437 1 15.1164 0 1.6796 1.60625 0.867569 -1.0705
440 1 15.1164 0.839798 2.51939 0.671732 0.667333 -1.66918
438 1 15.9562 0.839798 1.6796 2.40564 1.27646 2.75955
439 1 15.9562 0 2.51939 0.167682 -1.60383 -0.874895
441 1 0 1.6796 1.6796 0.985909 1.3232 2.92701
442 1 0.839798 2.51939 1.6796 2.47297 -2.81066 1.10552
443 1 0.839798 1.6796 2.51939 0.984426 0.572219 0.577225
444 1 0 2.51939 2.51939 2.39067 -2.66781 -2.15649
445 1 1.6796 1.6796 1.6796 0.0484268 -0.359565 -1.99653
446 1 2.51939 2.51939 1.6796 1.04375 0.929791 -0.382798
447 1 2.51939 1.6796 2.51939 2.99227 2.19236 -1.88424
448 1 1.6796 2.51939 2.51939 2.02588 -2.11478 1.66776
449 1 3.35919 1.6796 1.6796 -1.9809 -0.607127 -0.613821
450 1 4.19899 2.51939 1.6796 -0.984951 -0.846806 0.347509
451 1 4.19899 1.6796 2.51939 -2.70304 -1.39062 0.324877
452 1 3.35919 2.51939 2.51939 -0.694822 0.366671 1.30022
453 1 5.03879 1.6796 1.6796 0.65689 -1.11009 -2.71963
454 1 5.87859 2.51939 1.6796 -2.55407 1.35676 -0.81636
455 1 5.87859 1.6796 2.51939 0.618738 -1.98493 -2.66031
456 1 5.03879 2.51939 2.51939 2.25486 -1.74509 -0.981397
457 1 6.71838 1.6796 1.6796 0.960846 2.94577 -0.986702
458 1 7.55818 2.51939 1.6796 -2.00973 -1.85671 1.74439
459 1 7.55818 1.6796 2.51939 2.32163 2.93164 -2.85714
460 1 6.71838 2.51939 2.51939 -1.36563 -1.64379 -1.90354
461 1 8.39798 1.6796 1.6796 -1.11351 1.13922 -2.3007
464 1 8.39798 2.51939 2.51939 1.23505 2.32304 1.53475
462 1 9.23778 2.51939 1.6796 -2.86207 1.89316 1.4573
463 1 9.23778 1.6796 2.51939 -1.15928 -1.05465 -1.23132
465 1 10.0776 1.6796 1.6796 1.11855 1.55579 -2.32195
468 1 10.0776 2.51939 2.51939 0.0925071 -2.52839 -2.79547
466 1 10.9174 2.51939 1.6796 -0.296224 0.276647 -1.51049
467 1 10.9174 1.6796 2.51939 0.964215 -0.827331 1.45901
469 1 11.7572 1.6796 1.6796 -2.72775 0.0788605 2.80509
472 1 11.7572 2.51939 2.51939 2.55114 0.252311 0.245294
470 1 12.597 2.51939 1.6796 0.738281 1.59804 0.89448
471 1 12.597 1.6796 2.51939 0.0409488 0.815793 -1.38696
473 1 13.4368 1.6796 1.6796 -1.45835 -1.50335 2.552
476 1 13.4368 2.51939 2.51939 1.20161 2.06328 -2.74836
474 1 14.2766 2.51939 1.6796 -2.95913 1.61855 1.27967
475 1 14.2766 1.6796 2.51939 0.376214 -0.51709 2.41655
477 1 15.1164 1.6796 1.6796 0.987578 -0.824351 -2.82346
480 1 15.1164 2.51939 2.51939 3.04417 -1.55534 -1.46368
478 1 15.9562 2.51939 1.6796 0.841121 2.34563 0.730899
479 1 15.9562 1.6796 2.51939 -1.44553 2.66682 -1.65857
481 1 0 3.35919 1.6796 -2.77392 -2.63388 0.219573
482 1 0.839798 4.19899 1.6796 0.416545 0.756207 -0.0661064
483 1 0.839798 3.35919 2.51939 3.04013 -2.88462 2.55122
484 1 0 4.19899 2.51939 -1.18734 -1.38814 -0.302794
485 1 1.6796 3.35919 1.6796 -1.63401 0.143751 0.0209104
486 1 2.51939 4.19899 1.6796 2.26969 -0.133661 1.10099
487 1 2.51939 3.35919 2.51939 1.54402 0.0557195 0.490114
488 1 1.6796 4.19899 2.51939 -0.236049 2.82459 -1.85837
489 1 3.35919 3.35919 1.6796 -1.76208 -1.66094 -0.287709
490 1 4.19899 4.19899 1.6796 -0.476493 3.00874 0.103457
491 1 4.19899 3.35919 2.51939 0.518586 0.156725 0.605122
492 1 3.35919 4.19899 2.51939 2.95846 1.73778 -0.39851
493 1 5.03879 3.35919 1.6796 0.136529 0.357012 2.07131
494 1 5.87859 4.19899 1.6796 -0.372828 -0.500512 -2.8749
495 1 5.87859 3.35919 2.51939 2.26735 2.79863 2.6748
496 1 5.03879 4.19899 2.51939 -2.18928 0.870448 -1.01718
497 1 6.71838 3.35919 1.6796 -2.7147 1.94762 -1.51813
498 1 7.55818 4.19899 1.6796 2.8256 -2.16113 1.87596
499 1 7.55818 3.35919 2.51939 -2.74185 -1.31274 -1.65544
500 1 6.71838 4.19899 2.51939 1.57968 1.29087 -2.75084
501 1 8.39798 3.35919 1.6796 1.36903 0.803808 2.57767
504 1 8.39798 4.19899 2.51939 -1.07871 -0.0554174 -0.761471
502 1 9.23778 4.19899 1.6796 -1.87263 0.918451 2.33958
503 1 9.23778 3.35919 2.51939 0.839816 -1.46836 -1.38255
505 1 10.0776 3.35919 1.6796 1.56857 1.83605 2.0372
508 1 10.0776 4.19899 2.51939 -1.53269 -0.365887 0.487888
506 1 10.9174 4.19899 1.6796 -0.771206 -2.76178 1.19828
507 1 10.9174 3.35919 2.51939 -1.79698 -2.30726 -1.52448
509 1 11.7572 3.35919 1.6796 1.86928 -0.32164 1.11627
512 1 11.7572 4.19899 2.51939 -0.66149 -1.22034 -1.23728
510 1 12.597 4.19899 1.6796 2.91337 -0.99191 2.10773
511 1 12.597 3.35919 2.51939 1.01614 1.95464 1.69346
513 1 13.4368 3.35919 1.6796 -2.71993 -1.32363 2.62002
516 1 13.4368 4.19899 2.51939 0.332325 -1.17323 -0.820485
514 1 14.2766 4.19899 1.6796 2.89213 -1.49235 0.0941488
515 1 14.2766 3.35919 2.51939 -2.63566 1.30912 1.90125
517 1 15.1164 3.35919 1.6796 0.35329 0.814392 -0.771038
520 1 15.1164 4.19899 2.51939 -1.78739 1.74393 0.230956
518 1 15.9562 4.19899 1.6796 1.07105 0.690808 0.218919
519 1 15.9562 3.35919 2.51939 1.01083 -2.61033 -2.62581
521 1 0 5.03879 1.6796 -1.78623 -2.88983 -0.417822
522 1 0.839798 5.87859 1.6796 1.64738 -2.63845 1.94372
523 1 0.839798 5.03879 2.51939 -1.25288 2.62907 -1.81314
524 1 0 5.87859 2.51939 -0.0756967 -2.40485 1.45904
525 1 1.6796 5.03879 1.6796 0.238393 2.83279 2.91871
526 1 2.51939 5.87859 1.6796 -2.38888 -1.06598 1.57598
527 1 2.51939 5.03879 2.51939 -2.46018 2.76985 2.37059
528 1 1.6796 5.87859 2.51939 -0.0947906 2.88978 0.251336
529 1 3.35919 5.03879 1.6796 0.854356 1.27515 -1.14545
530 1 4.19899 5.87859 1.6796 1.39439 -1.79005 -1.57024
531 1 4.19899 5.03879 2.51939 -1.89064 0.168122 -1.15662
532 1 3.35919 5.87859 2.51939 -1.61569 -0.0235002 -1.9655
533 1 5.03879 5.03879 1.6796 -2.06227 -2.80824 -0.535512
534 1 5.87859 5.87859 1.6796 -2.42851 -2.69043 -1.83449
535 1 5.87859 5.03879 2.51939 -0.915896 -0.0928351 -1.39043
536 1 5.03879 5.87859 2.51939 2.8476 -0.889937 0.362697
537 1 6.71838 5.03879 1.6796 1.10642 -2.94793 1.62593
538 1 7.55818 5.87859 1.6796 -2.34937 -1.54106 2.99238
539 1 7.55818 5.03879 2.51939 1.66772 1.00062 -0.0647704
540 1 6.71838 5.87859 2.51939 -1.65695 1.31766 0.364522
541 1 8.39798 5.03879 1.6796 -2.43912 0.208142 0.934833
544 1 8.39798 5.87859 2.51939 -1.43595 0.419194 2.08931
542 1 9.23778 5.87859 1.6796 1.30282 -0.355258 -2.09855
543 1 9.23778 5.03879 2.51939 3.04276 -1.0778 2.28433
545 1 10.0776 5.03879 1.6796 -1.82299 1.53045 0.64238
548 1 10.0776 5.87859 2.51939 -2.64098 2.51346 0.281909
546 1 10.9174 5.87859 1.6796 -0.345208 -1.43983 0.798893
547 1 10.9174 5.03879 2.51939 -0.534695 -2.60864 1.48158
549 1 11.7572 5.03879 1.6796 1.71982 0.715744 2.49277
552 1 11.7572 5.87859 2.51939 0.591451 -1.49703 0.0390318
550 1 12.597 5.87859 1.6796 1.5173 -2.04184 1.25714
551 1 12.597 5.03879 2.51939 -1.98275 -1.418 -0.765835
553 1 13.4368 5.03879 1.6796 -0.390002 0.815902 0.455181
556 1 13.4368 5.87859 2.51939 2.54935 0.233487 -2.00553
554 1 14.2766 5.87859 1.6796 -2.38863 -2.84691 2.06446
555 1 14.2766 5.03879 2.51939 -1.81805 0.036732 1.53316
557 1 15.1164 5.03879 1.6796 1.2912 -2.2995 2.08517
560 1 15.1164 5.87859 2.51939 1.6449 -2.00657 2.10301